# vtk DataFile Version 2.0
Unstructured Grid
ASCII
DATASET UNSTRUCTURED_GRID
POINTS 144 float
-3.0 3.0 0.0
-1.5 3.0 0.0
0.0 3.0 0.0
1.5 3.0 0.0
3.0 3.0 0.0
3.0 1.5 0.0
3.0 0.0 0.0
3.0 -1.5 0.0
3.0 -3.0 0.0
1.5 -3.0 0.0
0.0 -3.0 0.0
-1.5 -3.0 0.0
-3.0 -3.0 0.0
-3.0 1.5 0.0
-3.0 0.0 0.0
-3.0 -1.5 0.0
10.0 10.0 0.0
7.777777777777779 10.0 0.0
5.555555555555555 10.0 0.0
-3.333333333333332 -10.0 0.0
-1.111111111111111 -10.0 0.0
3.333333333333332 10.0 0.0
1.111111111111111 10.0 0.0
5.555555555555557 -10.0 0.0
7.777777777777779 -10.0 0.0
10.0 -10.0 0.0
10.0 -7.777777777777779 0.0
10.0 -3.333333333333332 0.0
10.0 -1.111111111111111 0.0
-5.555555555555557 10.0 0.0
-7.777777777777779 10.0 0.0
-10.0 10.0 0.0
-10.0 7.777777777777779 0.0
-10.0 5.555555555555555 0.0
-10.0 3.333333333333332 0.0
-10.0 1.111111111111111 0.0
-10.0 -1.111111111111111 0.0
-10.0 -3.333333333333335 0.0
-10.0 -5.555555555555557 0.0
-10.0 -7.777777777777779 0.0
-10.0 -10.0 0.0
-7.777777777777779 -10.0 0.0
-5.555555555555555 -10.0 0.0
1.111111111111111 -10.0 0.0
3.333333333333335 -10.0 0.0
-1.111111111111111 10.0 0.0
-3.333333333333335 10.0 0.0
10.0 -5.555555555555555 0.0
10.0 1.111111111111111 0.0
10.0 3.333333333333335 0.0
10.0 5.555555555555557 0.0
10.0 7.777777777777779 0.0
-3.25 3.25 0.0
-1.5914102269808905 3.5 0.0
-0.02201007761545451 3.5 0.0
1.5857149054978876 3.5 0.0
3.25866431804114 3.24133568195886 0.0
3.5 1.5877636709985268 0.0
3.5 0.021153689926380073 0.0
3.5 -1.585935441825227 0.0
3.2413127218522906 -3.2586872781477094 0.0
1.5877539399298 -3.5 0.0
0.021151401109747184 -3.5 0.0
-1.5859360313715833 -3.5 0.0
-3.258687339527902 -3.241312660472098 0.0
-3.5 1.5914102269808905 0.0
-3.5 0.02201007761545451 0.0
-3.5 -1.5820876595880462 0.0
-3.5638692750484493 3.5638692750484493 0.0
-1.7187027556295127 4.065097447866354 0.0
-0.043072445238652876 4.1 0.0
1.708875760706292 4.064608127851948 0.0
3.5826324069213404 3.5449336495670227 0.0
4.066423996072986 1.7105512411557076 0.0
4.1 0.04104524812335257 0.0
4.064579517504231 -1.709383178054893 0.0
3.5448729963442287 -3.5826943005316485 0.0
1.7105250451291496 -4.066427830413411 0.0
0.04103873653772393 -4.1 0.0
-1.7094142987499985 -4.0645771531184485 0.0
-3.5827291914864547 -3.544782495206575 0.0
-4.065097447866354 1.7187027556295127 0.0
-4.1 0.04372989443672104 0.0
-4.0669151089092646 -1.6995529644347076 0.0
-3.956298250808914 3.956298926765337 0.0
-1.8909156910763278 4.716170780973954 0.0
-0.06257047326045043 4.810741158828645 0.0
1.8779589686750762 4.714823420812563 0.0
3.9860485540493023 3.925940789620468 0.0
4.719836133964491 1.877504690981173 0.0
4.810900202773778 0.05896596614010872 0.0
4.714725633367024 -1.8788543077444266 0.0
3.9258197998161477 -3.98617683342456 0.0
1.8774512362586984 -4.719849213800172 0.0
0.058947826193889635 -4.810900450595704 0.0
-1.8789842321777015 -4.71469911336391 0.0
-3.986366034452391 -3.9253850537446335 0.0
-4.716157130771567 1.8910191260293248 0.0
-4.810997605861724 0.06479595573605391 0.0
-4.721186743040288 -1.861124329282992 0.0
-4.443838702388557 4.443865352436415 0.0
-2.1182450286218284 5.476188684933497 0.0
-0.08048155980026528 5.647994604594239 0.0
2.1024050025033643 5.473580393271714 0.0
4.484882012515948 4.401459663119972 0.0
5.482948448399079 2.0989450805333845 0.0
5.6485373164734 0.07481170180290353 0.0
5.473373611460047 -2.1038506242466113 0.0
4.401243738820348 -4.485120575373634 0.0
2.0988467212065447 -5.482979513417475 0.0
0.07476043967798486 -5.648536469142436 0.0
-2.1041922914370543 -5.473264269247682 0.0
-4.485713759842999 -4.400015263595002 0.0
-5.476139575436514 2.118697328362544 0.0
-5.648876562750391 0.08536968445631987 0.0
-5.485371087305192 -2.076445405457697 0.0
-5.04554468901335 5.045684246875155 0.0
-2.411946571135384 6.371017635818383 0.0
-0.09705086191092238 6.633995333446502 0.0
2.392786801421449 6.366749217400617 0.0
5.097663915085546 4.991075111786869 0.0
6.381408544301307 2.3862462889056415 0.0
6.635141549817252 0.08875348997097629 0.0
6.366396374851581 -2.3950276566039146 0.0
4.990712677828926 -5.09808115611483 0.0
2.386073436546166 -6.381471975939797 0.0
0.08862251558170386 -6.635133811556297 0.0
-2.395760373911272 -6.366092592832634 0.0
-5.099487174700056 -4.988008529614065 0.0
-6.370897098684585 2.413183604598 0.0
-6.635875975492404 0.10586678433179136 0.0
-6.385069650622944 -2.356211383971999 0.0
-6.950439533152049 7.513721749289085 0.0
7.517434582732685 6.946548849064444 0.0
-7.517564815562292 -6.946329807480671 0.0
6.9465229609245895 -7.517464385663348 0.0
-4.523526903792653 7.829073469815127 0.0
7.835310527484459 4.51550991784703 0.0
-7.835858964078074 -4.5121997691363855 0.0
4.515456389215289 -7.835358594751236 0.0
7.710459737270157 -4.6397431085933185 0.0
-7.7163930107719 4.6363190124687605 0.0
-4.639956982182577 -7.710158944246777 0.0
4.639477298972144 7.710531264920855 0.0
CELLS 156 704
3 27 28 123
3 19 20 127
3 16 17 51
3 25 26 24
3 39 40 41
3 29 30 132
3 30 31 32
3 50 51 133
3 38 39 134
3 21 22 119
3 34 35 129
3 23 24 135
3 20 43 126
3 28 48 122
3 22 45 118
3 35 36 130
3 46 29 136
3 49 50 137
3 37 38 138
3 44 23 139
3 26 47 135
3 47 27 140
3 33 34 141
3 32 33 132
3 42 19 142
3 18 21 143
3 17 18 133
3 41 42 134
3 48 49 121
3 36 37 131
3 45 46 117
3 43 44 125
3 125 126 43
3 121 122 48
3 130 129 35
3 117 118 45
3 131 130 36
3 122 123 28
3 126 127 20
3 118 119 22
3 124 125 139
3 120 121 137
3 128 131 138
3 129 116 141
3 116 117 136
3 123 124 140
3 119 120 143
3 127 128 142
3 136 29 132
3 136 132 116
3 137 50 133
3 137 133 120
3 139 23 135
3 139 135 124
3 138 38 134
3 138 134 128
3 141 34 129
3 44 139 125
3 142 19 127
3 37 138 131
3 33 141 132
3 143 21 119
3 42 142 134
3 49 137 121
3 47 140 135
3 18 143 133
3 46 136 117
3 140 27 123
3 134 39 41
3 135 24 26
3 133 51 17
3 132 30 32
3 141 116 132
3 143 120 133
3 140 124 135
3 142 128 134
4 0 1 53 52
4 1 2 54 53
4 2 3 55 54
4 3 4 56 55
4 4 5 57 56
4 5 6 58 57
4 6 7 59 58
4 7 8 60 59
4 8 9 61 60
4 9 10 62 61
4 10 11 63 62
4 11 12 64 63
4 13 0 52 65
4 14 13 65 66
4 15 14 66 67
4 12 15 67 64
4 52 53 69 68
4 53 54 70 69
4 54 55 71 70
4 55 56 72 71
4 56 57 73 72
4 57 58 74 73
4 58 59 75 74
4 59 60 76 75
4 60 61 77 76
4 61 62 78 77
4 62 63 79 78
4 63 64 80 79
4 65 52 68 81
4 66 65 81 82
4 67 66 82 83
4 64 67 83 80
4 68 69 85 84
4 69 70 86 85
4 70 71 87 86
4 71 72 88 87
4 72 73 89 88
4 73 74 90 89
4 74 75 91 90
4 75 76 92 91
4 76 77 93 92
4 77 78 94 93
4 78 79 95 94
4 79 80 96 95
4 81 68 84 97
4 82 81 97 98
4 83 82 98 99
4 80 83 99 96
4 84 85 101 100
4 85 86 102 101
4 86 87 103 102
4 87 88 104 103
4 88 89 105 104
4 89 90 106 105
4 90 91 107 106
4 91 92 108 107
4 92 93 109 108
4 93 94 110 109
4 94 95 111 110
4 95 96 112 111
4 97 84 100 113
4 98 97 113 114
4 99 98 114 115
4 96 99 115 112
4 100 101 117 116
4 101 102 118 117
4 102 103 119 118
4 103 104 120 119
4 104 105 121 120
4 105 106 122 121
4 106 107 123 122
4 107 108 124 123
4 108 109 125 124
4 109 110 126 125
4 110 111 127 126
4 111 112 128 127
4 113 100 116 129
4 114 113 129 130
4 115 114 130 131
4 112 115 131 128
CELL_TYPES 156
5
5
5
5
5
5
5
5
5
5
5
5
5
5
5
5
5
5
5
5
5
5
5
5
5
5
5
5
5
5
5
5
5
5
5
5
5
5
5
5
5
5
5
5
5
5
5
5
5
5
5
5
5
5
5
5
5
5
5
5
5
5
5
5
5
5
5
5
5
5
5
5
5
5
5
5
9
9
9
9
9
9
9
9
9
9
9
9
9
9
9
9
9
9
9
9
9
9
9
9
9
9
9
9
9
9
9
9
9
9
9
9
9
9
9
9
9
9
9
9
9
9
9
9
9
9
9
9
9
9
9
9
9
9
9
9
9
9
9
9
9
9
9
9
9
9
9
9
9
9
9
9
9
9
9
9
POINT_DATA 144
SCALARS node_id int 1
LOOKUP_TABLE default
1
1
1
1
1
1
1
1
1
1
1
1
1
1
1
1
1
1
1
1
1
1
1
1
1
1
1
1
1
1
1
1
1
1
1
1
1
1
1
1
1
1
1
1
1
1
1
1
1
1
1
1
0
0
0
0
0
0
0
0
0
0
0
0
0
0
0
0
0
0
0
0
0
0
0
0
0
0
0
0
0
0
0
0
0
0
0
0
0
0
0
0
0
0
0
0
0
0
0
0
0
0
0
0
0
0
0
0
0
0
0
0
0
0
0
0
0
0
0
0
0
0
0
0
0
0
0
0
0
0
0
0
0
0
0
0
0
0
0
0
0
0
0
0
CELL_DATA 156
SCALARS cell_id int 1
LOOKUP_TABLE default
0
1
2
3
4
5
6
7
8
9
10
11
12
13
14
15
16
17
18
19
20
21
22
23
24
25
26
27
28
29
30
31
32
33
34
35
36
37
38
39
40
41
42
43
44
45
46
47
48
49
50
51
52
53
54
55
56
57
58
59
60
61
62
63
64
65
66
67
68
69
70
71
72
73
74
75
76
77
78
79
80
81
82
83
84
85
86
87
88
89
90
91
92
93
94
95
96
97
98
99
100
101
102
103
104
105
106
107
108
109
110
111
112
113
114
115
116
117
118
119
120
121
122
123
124
125
126
127
128
129
130
131
132
133
134
135
136
137
138
139
140
141
142
143
144
145
146
147
148
149
150
151
152
153
154
155
