# vtk DataFile Version 2.0
Unstructured Grid
ASCII
DATASET UNSTRUCTURED_GRID
POINTS 36 float
-4.0 -4.0 0.0
-2.0 -4.0 0.0
0.0 -4.0 0.0
2.0 -4.0 0.0
4.0 -4.0 0.0
4.0 -2.0 0.0
4.0 0.0 0.0
4.0 2.0 0.0
4.0 4.0 0.0
2.0 4.0 0.0
0.0 4.0 0.0
-2.0 4.0 0.0
-4.0 4.0 0.0
-4.0 2.0 0.0
-4.0 0.0 0.0
-4.0 -2.0 0.0
0.7928731310801259 -0.7600521180921433 0.0
-0.0002186715500578709 -2.199549365218849 0.0
1.33830623155032 -2.483280541827667 0.0
-2.781958941870697 -2.816868459760198 0.0
2.765440236508031 2.789841812721054 0.0
2.767421773770691 -2.757898067943964 0.0
-2.74588380842618 2.856867642247641 0.0
-1.002813975363199 -1.087223321331314 0.0
-1.377621371082144 -2.603627070956144 0.0
-2.088890142197427 -0.1112877489742642 0.0
-0.6525642556272213 0.444545001449812 0.0
-2.216572292524294 1.447008599807655 0.0
2.5206985607488 1.39391596006152 0.0
2.157728475882033 0.08271437069696862 0.0
-1.51284674960661 2.83732961143055 0.0
-0.3762503050366331 2.092906787881321 0.0
1.306502621791354 2.555293103543748 0.0
0.9581647048064098 0.9682205175902038 0.0
2.498802637303135 -1.306209797892149 0.0
-2.532173338271341 -1.480715227844845 0.0
CELLS 54 216
3 27 30 31
3 26 27 31
3 24 35 23
3 25 35 23
3 16 18 34
3 18 34 21
3 32 33 28
3 32 28 20
3 24 19 35
3 24 17 23
3 33 28 29
3 28 20 7
3 16 34 29
3 18 3 21
3 27 30 22
3 25 26 27
3 11 30 22
3 19 35 15
3 25 35 14
3 32 33 31
3 16 26 23
3 16 33 26
3 34 5 21
3 27 13 22
3 24 1 19
3 32 9 20
3 8 20 7
3 32 9 10
3 35 14 15
3 27 13 14
3 34 5 6
3 16 33 29
3 2 18 3
3 24 1 2
3 34 29 6
3 3 4 21
3 11 12 22
3 33 26 31
3 0 19 15
3 32 10 31
3 10 30 31
3 17 18 2
3 28 6 7
3 10 11 30
3 28 29 6
3 25 27 14
3 25 26 23
3 24 17 2
3 16 17 23
3 12 13 22
3 5 4 21
3 8 9 20
3 0 1 19
3 16 17 18
CELL_TYPES 54
5
5
5
5
5
5
5
5
5
5
5
5
5
5
5
5
5
5
5
5
5
5
5
5
5
5
5
5
5
5
5
5
5
5
5
5
5
5
5
5
5
5
5
5
5
5
5
5
5
5
5
5
5
5
POINT_DATA 36
SCALARS fixed int 1
LOOKUP_TABLE default
1
1
1
1
1
1
1
1
1
1
1
1
1
1
1
1
0
0
0
0
0
0
0
0
0
0
0
0
0
0
0
0
0
0
0
0
CELL_DATA 54
SCALARS cell_id int 1
LOOKUP_TABLE default
0
1
2
3
4
5
6
7
8
9
10
11
12
13
14
15
16
17
18
19
20
21
22
23
24
25
26
27
28
29
30
31
32
33
34
35
36
37
38
39
40
41
42
43
44
45
46
47
48
49
50
51
52
53
